# vtk DataFile Version 2.0
Unstructured Grid Example
ASCII
DATASET UNSTRUCTURED_GRID

POINTS 85 float
0.045 0 0
0.038971 0.0225 0
0.0225 0.038971 0
0 0.045 0
-0.0225 0.038971 0
-0.038971 0.0225 0
-0.045 0 0
-0.038971 -0.0225 0
-0.0225 -0.038971 0
-0 -0.045 0
0.0225 -0.038971 0
0.038971 -0.0225 0
0.0375 0 0
0.032476 0.01875 0
0.01875 0.032476 0
0 0.0375 0
-0.01875 0.032476 0
-0.032476 0.01875 0
-0.0375 0 0
-0.032476 -0.01875 0
-0.01875 -0.032476 0
-0 -0.0375 0
0.01875 -0.032476 0
0.032476 -0.01875 0
0.03125 0 0
0.027063 0.015625 0
0.015625 0.027063 0
0 0.03125 0
-0.015625 0.027063 0
-0.027063 0.015625 0
-0.03125 0 0
-0.027063 -0.015625 0
-0.015625 -0.027063 0
-0 -0.03125 0
0.015625 -0.027063 0
0.027063 -0.015625 0
0.025 0 0
0.021651 0.0125 0
0.0125 0.021651 0
0 0.025 0
-0.0125 0.021651 0
-0.021651 0.0125 0
-0.025 0 0
-0.021651 -0.0125 0
-0.0125 -0.021651 0
-0 -0.025 0
0.0125 -0.021651 0
0.021651 -0.0125 0
0.01875 0 0
0.016238 0.009375 0
0.009375 0.016238 0
0 0.01875 0
-0.009375 0.016238 0
-0.016238 0.009375 0
-0.01875 0 0
-0.016238 -0.009375 0
-0.009375 -0.016238 0
-0 -0.01875 0
0.009375 -0.016238 0
0.016238 -0.009375 0
0.0125 0 0
0.010825 0.00625 0
0.00625 0.010825 0
0 0.0125 0
-0.00625 0.010825 0
-0.010825 0.00625 0
-0.0125 0 0
-0.010825 -0.00625 0
-0.00625 -0.010825 0
-0 -0.0125 0
0.00625 -0.010825 0
0.010825 -0.00625 0
0.00625 0 0
0.005413 0.003125 0
0.003125 0.005413 0
0 0.00625 0
-0.003125 0.005413 0
-0.005413 0.003125 0
-0.00625 0 0
-0.005413 -0.003125 0
-0.003125 -0.005413 0
-0 -0.00625 0
0.003125 -0.005413 0
0.005413 -0.003125 0
0 0 0

CELLS 78 390
4 0 1 13 12 
4 1 2 14 13 
4 2 3 15 14 
4 3 4 16 15 
4 4 5 17 16 
4 5 6 18 17 
4 6 7 19 18 
4 7 8 20 19 
4 8 9 21 20 
4 9 10 22 21 
4 10 11 23 22 
4 11 0 12 23 
4 12 13 25 24 
4 13 14 26 25 
4 14 15 27 26 
4 15 16 28 27 
4 16 17 29 28 
4 17 18 30 29 
4 18 19 31 30 
4 19 20 32 31 
4 20 21 33 32 
4 21 22 34 33 
4 22 23 35 34 
4 23 12 24 35 
4 24 25 37 36 
4 25 26 38 37 
4 26 27 39 38 
4 27 28 40 39 
4 28 29 41 40 
4 29 30 42 41 
4 30 31 43 42 
4 31 32 44 43 
4 32 33 45 44 
4 33 34 46 45 
4 34 35 47 46 
4 35 24 36 47 
4 36 37 49 48 
4 37 38 50 49 
4 38 39 51 50 
4 39 40 52 51 
4 40 41 53 52 
4 41 42 54 53 
4 42 43 55 54 
4 43 44 56 55 
4 44 45 57 56 
4 45 46 58 57 
4 46 47 59 58 
4 47 36 48 59 
4 48 49 61 60 
4 49 50 62 61 
4 50 51 63 62 
4 51 52 64 63 
4 52 53 65 64 
4 53 54 66 65 
4 54 55 67 66 
4 55 56 68 67 
4 56 57 69 68 
4 57 58 70 69 
4 58 59 71 70 
4 59 48 60 71 
4 60 61 73 72 
4 61 62 74 73 
4 62 63 75 74 
4 63 64 76 75 
4 64 65 77 76 
4 65 66 78 77 
4 66 67 79 78 
4 67 68 80 79 
4 68 69 81 80 
4 69 70 82 81 
4 70 71 83 82 
4 71 60 72 83 
4 72 73 74 84 
4 74 75 76 84 
4 76 77 78 84 
4 78 79 80 84 
4 80 81 82 84 
4 82 83 72 84 

CELL_TYPES 78
9
9
9
9
9
9
9
9
9
9
9
9
9
9
9
9
9
9
9
9
9
9
9
9
9
9
9
9
9
9
9
9
9
9
9
9
9
9
9
9
9
9
9
9
9
9
9
9
9
9
9
9
9
9
9
9
9
9
9
9
9
9
9
9
9
9
9
9
9
9
9
9
9
9
9
9
9
9

POINT_DATA 85
SCALARS Temp float 1
LOOKUP_TABLE default
63.189
63.189
63.189
63.189
63.189
63.189
63.189
63.189
63.189
63.189
63.189
63.189
65.312
65.3119
65.3119
65.312
65.3119
65.3119
65.312
65.3119
65.3119
65.312
65.3119
65.3119
71.0743
71.0743
71.0743
71.0743
71.0743
71.0743
71.0743
71.0743
71.0743
71.0743
71.0743
71.0743
71.0743
71.0743
71.0743
71.0743
71.0743
71.0743
71.0743
71.0743
71.0743
71.0743
71.0743
71.0743
71.0743
71.0743
71.0743
71.0743
71.0743
71.0743
71.0743
71.0743
71.0743
71.0743
71.0743
71.0743
71.0743
71.0743
71.0743
71.0743
71.0743
71.0743
71.0743
71.0743
71.0743
71.0743
71.0743
71.0743
71.0743
71.0743
71.0743
71.0743
71.0743
71.0743
71.0743
71.0743
71.0743
71.0743
71.0743
71.0743
71.0743
